<?xml version="1.0" encoding="UTF-8"?>

<!-- generated on 2023-01-28 21:06:20 by Eclipse SUMO sumo Version 1.14.1
<configuration xmlns:xsi="http://www.w3.org/2001/XMLSchema-instance" xsi:noNamespaceSchemaLocation="http://sumo.dlr.de/xsd/sumoConfiguration.xsd">

    <input>
        <net-file value="C:\Users\DELL\AppData\Roaming\Microsoft\Windows\Start%20Menu\Programs\SUMO\2023-01-28-21-05-54\osm.net.xml"/>
        <route-files value="C:\Users\DELL\AppData\Roaming\Microsoft\Windows\Start%20Menu\Programs\SUMO\2023-01-28-21-05-54\trips.trips.xml"/>
        <additional-files value="C:\Users\DELL\AppData\Roaming\Microsoft\Windows\Start%20Menu\Programs\SUMO\2023-01-28-21-05-54\osm_stops.add.xml"/>
    </input>

    <output>
        <vehroute-output value="C:\Users\DELL\AppData\Roaming\Microsoft\Windows\Start%20Menu\Programs\SUMO\2023-01-28-21-05-54\vehroutes.xml"/>
        <stop-output value="C:\Users\DELL\AppData\Roaming\Microsoft\Windows\Start%20Menu\Programs\SUMO\2023-01-28-21-05-54\stopinfos.xml"/>
    </output>

    <time>
        <begin value="0"/>
    </time>

    <processing>
        <ignore-route-errors value="true"/>
    </processing>

    <routing>
        <device.rerouting.adaptation-interval value="0"/>
    </routing>

    <report>
        <aggregate-warnings value="5"/>
        <error-log value="C:\Users\DELL\AppData\Roaming\Microsoft\Windows\Start%20Menu\Programs\SUMO\2023-01-28-21-05-54\trips.trips.xml.errorlog"/>
        <no-step-log value="true"/>
    </report>

</configuration>
-->

<routes xmlns:xsi="http://www.w3.org/2001/XMLSchema-instance" xsi:noNamespaceSchemaLocation="http://sumo.dlr.de/xsd/routes_file.xsd">
    <vehicle id="0_bus_160:0" type="pt_bus" depart="3.00" departLane="0" arrival="162.00">
        <route edges="46039050#0 46039050#2 46039050#3 143308587#0 24214694#2 24214694#3 190083618#0 239335494 -143308570 -318210395 -190083616"/>
        <stop busStop="837696524" duration="30.00"/>
        <stop busStop="1560223236" duration="30.00"/>
    </vehicle>

    <vehicle id="3_bus_162:0" type="pt_bus" depart="17.00" departLane="0" arrival="324.00">
        <route edges="206889086#0 318210389#0 670062912#0 670062909#0 670062907#0 670062907#2 677933664#3 143308546#0 143308546#3 143308546#4 670062902#1 143308587#0 24214694#2 24214694#3 190083618#0 239335494 -143308570 -318210395 -190083616"/>
        <stop busStop="1656195133" duration="30.00"/>
        <stop busStop="464396566" duration="30.00"/>
        <stop busStop="301331956" duration="30.00"/>
        <stop busStop="1560223236" duration="30.00"/>
    </vehicle>

    <vehicle id="5_bus_163:0" type="pt_bus" depart="93.00" departLane="0" arrival="374.00">
        <route edges="12749623 81639678 48858191#0 318210383#0 52243916#0 -43660343#1 -43660343#0 10735918 986672064#0 204721579#0 204721579#1 204721579#2 153021549#0 153021549#1 153021549#2 153021549#3 153021549#4 153021549#5 1102336903#0 1102336903#1 414563781 318210357#0 206889086#0"/>
        <stop busStop="1383533462" duration="30.00"/>
        <stop busStop="1862990707" duration="30.00"/>
        <stop busStop="1656195133" duration="30.00"/>
    </vehicle>

    <vehicle id="4_bus_162:1" type="pt_bus" depart="52.00" departLane="0" arrival="425.00">
        <route edges="190083616 318210395 143308570 283317455#0 -190083618#2 -24214694#3 -24214694#2 143308590#0 143308542#0 143308542#2 143308542#5 143308542#8 143308542#10 143308552#0 998243552#0 976351540#0 72230304#0 461514282#0 461514282#1"/>
        <stop busStop="464396487" duration="30.00"/>
        <stop busStop="306982602" duration="30.00"/>
        <stop busStop="464396589" duration="30.00"/>
    </vehicle>

    <vehicle id="6_bus_163:1" type="pt_bus" depart="119.00" departLane="0" arrival="428.00">
        <route edges="976351540#0 72230304#0 461514282#0 461514282#1 977639651#0 318210353 318210351 207086005#1 318210360#0 152839434#0 43660343#0 43660343#1 48298278#0 48858192#0 318210388#0 -318210386#2 -12749623"/>
        <stop busStop="5836660322" duration="30.00"/>
        <stop busStop="3812676495" duration="30.00"/>
        <stop busStop="1383533461" duration="30.00"/>
    </vehicle>

    <vehicle id="9_bus_260:0" type="pt_bus" depart="133.00" departLane="0" arrival="461.00">
        <route edges="206889086#0 318210389#0 670062912#0 -318210361#2 -314415495#12 -314415495#11 -314415495#9 -314415495#8 -314415495#7 -314415495#6 -314415495#5 -314415495#3 -314415495#2 -314415495#1 -314415495#0 -1050686757#2 -1050686757#1 -1050686757#0 -1050686755#4 -1050686755#3 -1050686755#1 -1050686755#0 -81639685#2 48858192#0 318210388#0 -318210386#2 -12749623"/>
        <stop busStop="1656195133" duration="30.00"/>
        <stop busStop="-385200818" duration="30.00"/>
        <stop busStop="-1560223790" duration="30.00"/>
        <stop busStop="-1560223555" duration="30.00"/>
    </vehicle>

    <vehicle id="10_bus_165:0" type="pt_bus" depart="165.00" departLane="0" arrival="465.00">
        <route edges="674407325 678683419 679714114 177615722 363443435 363443437 363443436 -31091960#3 -31091960#2 -31091960#1 -31091960#0 -31091957#1 -31091957#0 -1072169602 -395077041 679714112 238053687 431551339 678691344 431551338 238053690#0 238053690#1 1118064016 70553241#0 180797804"/>
        <stop busStop="4017682630" duration="30.00"/>
        <stop busStop="-1383533522" duration="30.00"/>
        <stop busStop="1383533513" duration="30.00"/>
        <stop busStop="361152203" duration="30.00"/>
    </vehicle>

    <vehicle id="11_bus_165:1" type="pt_bus" depart="201.00" departLane="0" arrival="486.00">
        <route edges="237122662#0 1118064011#0 70553224#1 70553224#2 238053688#0 679714111 1126431629 238053689#0 395077041 1072169602 31091957#0 31091957#1 31091960#0 31091960#1 31091960#2 31091960#3 -363443436 -363443437 -363443435 -177615722 -177615721 -678683419 -1018533067"/>
        <stop busStop="1383533607" duration="30.00"/>
        <stop busStop="1383533514" duration="30.00"/>
        <stop busStop="361152205" duration="30.00"/>
        <stop busStop="-355914690" duration="30.00"/>
    </vehicle>

    <vehicle id="22_bus_160:1" type="pt_bus" depart="483.00" departLane="0" arrival="672.00">
        <route edges="190083616 318210395 143308570 283317455#0 -190083618#2 -24214694#3 -24214694#2 143308590#0 143308532#0 143308532#2 143308532#3"/>
        <stop busStop="671564316" duration="30.00"/>
        <stop busStop="837696418" duration="30.00"/>
    </vehicle>

    <vehicle id="7_bus_163:2" type="pt_bus" depart="131.00" departLane="0" arrival="705.00">
        <route edges="46039050#0 46039050#2 46039050#3 143308542#0 143308542#2 143308542#5 143308542#8 143308542#10 143308552#0 998243552#0 976351540#0 72230304#0 461514282#0 461514282#1 977639651#0 318210353 318210351 207086005#1 318210360#0 152839434#0 43660343#0 43660343#1 48298278#0 48858192#0 318210388#0 -318210386#2 -12749623"/>
        <stop busStop="837696524" duration="30.00"/>
        <stop busStop="464396487" duration="30.00"/>
        <stop busStop="306982602" duration="30.00"/>
        <stop busStop="464396589" duration="30.00"/>
        <stop busStop="5836660322" duration="30.00"/>
        <stop busStop="3812676495" duration="30.00"/>
        <stop busStop="1383533461" duration="30.00"/>
    </vehicle>

    <vehicle id="19_bus_260:1" type="pt_bus" depart="406.00" departLane="0" arrival="742.00">
        <route edges="12749623 81639678 48858191#0 318210383#0 81639685#0 1050686755#0 1050686755#1 1050686755#3 1050686755#4 1050686757#0 1050686757#1 1050686757#2 1050686757#3 314415495#1 314415495#2 314415495#3 314415495#5 314415495#6 314415495#7 314415495#8 314415495#9 314415495#11 314415495#12 318210361#0 998243552#0 976351540#0 72230304#0 461514282#0 461514282#1"/>
        <stop busStop="945142241" duration="30.00"/>
        <stop busStop="664208807" duration="30.00"/>
        <stop busStop="385200819" duration="30.00"/>
    </vehicle>

    <vehicle id="12_bus_164:0" type="pt_bus" depart="204.00" departLane="0" arrival="1032.00">
        <route edges="1014229941#0 1014229941#1 679285267#0 679285267#1 1014112247 441521943#0 600369825 579787986#1 1000328788 113575152#0 113575152#1 113575152#2 113575152#3 113575152#6 113575152#8 -99157761#3 -1066214689#1 -1066214689#0 -23913524 137534616 1066222296#0 1066222296#1 1066221786 1066221582 166142951#0 166142951#1 149611526 1102336903#0 1102336903#1 414563781 318210357#0 206889086#0 318210389#0 670062912#0 670062909#0 670062907#0 670062907#2 677933664#3 143308546#0 143308546#3 143308546#4 670062902#1 143308587#0 24214694#2 24214694#3 190083618#0 239335494 -143308570 -318210395 -190083616"/>
        <stop busStop="1383533594" duration="30.00"/>
        <stop busStop="3834046603" duration="30.00"/>
        <stop busStop="297194207" duration="30.00"/>
        <stop busStop="-1383533494" duration="30.00"/>
        <stop busStop="1383533577" duration="30.00"/>
        <stop busStop="1383533575" duration="30.00"/>
        <stop busStop="1656195133" duration="30.00"/>
        <stop busStop="464396566" duration="30.00"/>
        <stop busStop="301331956" duration="30.00"/>
        <stop busStop="1560223236" duration="30.00"/>
    </vehicle>

    <vehicle id="21_bus_163:3" type="pt_bus" depart="441.00" departLane="0" arrival="1099.00">
        <route edges="12749623 81639678 48858191#0 318210383#0 52243916#0 -43660343#1 -43660343#0 10735918 986672064#0 204721579#0 204721579#1 204721579#2 153021549#0 153021549#1 153021549#2 153021549#3 153021549#4 153021549#5 1102336903#0 1102336903#1 414563781 318210357#0 206889086#0 318210389#0 670062912#0 670062909#0 670062907#0 670062907#2 677933664#3 143308546#0 143308546#3 143308546#4 670062902#1 143308532#0 143308532#2 143308532#3"/>
        <stop busStop="1383533462" duration="30.00"/>
        <stop busStop="1862990707" duration="30.00"/>
        <stop busStop="1656195133" duration="30.00"/>
        <stop busStop="464396566" duration="30.00"/>
        <stop busStop="301331956" duration="30.00"/>
        <stop busStop="671564316" duration="30.00"/>
        <stop busStop="837696418" duration="30.00"/>
    </vehicle>

    <vehicle id="20_bus_164:1" type="pt_bus" depart="418.00" departLane="0" arrival="1169.00">
        <route edges="190083616 318210395 143308570 283317455#0 -190083618#2 -24214694#3 -24214694#2 143308590#0 143308542#0 143308542#2 143308542#5 143308542#8 143308542#10 143308552#0 998243552#0 976351540#0 -679901152#2 152839428 24152326#0 24152326#1 23925124#0 23925124#1 23925124#2 -166142951#1 -166142951#0 -1066221582 -1066221787 -1066222296#1 -1066222296#0 -137534616 23913524 1066214689#0 1066214689#1 99157761#0 190928927#0 190928927#2 190928927#5 190928927#7 190928927#8 190928927#9 190928927#10 190928927#11 26814968#0 26814968#1 283006415#0 -1014130057 -679285267#1 -679285267#0 -1014229941#1 -1014229941#0"/>
        <stop busStop="464396487" duration="30.00"/>
        <stop busStop="306982602" duration="30.00"/>
        <stop busStop="464396589" duration="30.00"/>
        <stop busStop="5836660322" duration="30.00"/>
        <stop busStop="1383533459" duration="30.00"/>
        <stop busStop="-1383533578" duration="30.00"/>
        <stop busStop="1383533492" duration="30.00"/>
        <stop busStop="3834046602" duration="30.00"/>
        <stop busStop="3834046604" duration="30.00"/>
    </vehicle>

    <vehicle id="25_bus_162:3" type="pt_bus" depart="574.00" departLane="0" arrival="1293.00">
        <route edges="190083616 318210395 143308570 283317455#0 -190083618#2 -24214694#3 -24214694#2 143308590#0 143308542#0 143308542#2 143308542#5 143308542#8 143308542#10 143308552#0 998243552#0 976351540#0 -679901152#2 152839428 24152326#0 24152326#1 23925124#0 23925124#1 23925124#2 -166142951#1 -166142951#0 -1066221582 -1066221787 -1066222296#1 -1066222296#0 -137534616 23913524 1066214689#0 1066214689#1 99157761#0 190928927#0 190928927#2 190928927#5 190928927#7 190928927#8 190928927#9 190928927#10 190928927#11 26814968#0 26814968#1 283006415#0 -1014130057 -679285267#1 -679285267#0 -1014229941#1 -1014229941#0"/>
        <stop busStop="464396487" duration="30.00"/>
        <stop busStop="306982602" duration="30.00"/>
        <stop busStop="464396589" duration="30.00"/>
        <stop busStop="5836660322" duration="30.00"/>
        <stop busStop="1383533459" duration="30.00"/>
        <stop busStop="-1383533578" duration="30.00"/>
        <stop busStop="1383533492" duration="30.00"/>
        <stop busStop="3834046602" duration="30.00"/>
        <stop busStop="3834046604" duration="30.00"/>
    </vehicle>

    <vehicle id="24_bus_162:2" type="pt_bus" depart="535.00" departLane="0" arrival="1320.00">
        <route edges="1014229941#0 1014229941#1 679285267#0 679285267#1 1014112247 441521943#0 600369825 579787986#1 1000328788 113575152#0 113575152#1 113575152#2 113575152#3 113575152#6 113575152#8 -99157761#3 -1066214689#1 -1066214689#0 -23913524 137534616 1066222296#0 1066222296#1 1066221786 1066221582 166142951#0 166142951#1 149611526 1102336903#0 1102336903#1 414563781 318210357#0 206889086#0 318210389#0 670062912#0 670062909#0 670062907#0 670062907#2 677933664#3 143308546#0 143308546#3 143308546#4 670062902#1 143308587#0 24214694#2 24214694#3 190083618#0 239335494 -143308570 -318210395 -190083616"/>
        <stop busStop="1383533594" duration="30.00"/>
        <stop busStop="3834046603" duration="30.00"/>
        <stop busStop="297194207" duration="30.00"/>
        <stop busStop="-1383533494" duration="30.00"/>
        <stop busStop="1383533577" duration="30.00"/>
        <stop busStop="1383533575" duration="30.00"/>
        <stop busStop="1656195133" duration="30.00"/>
        <stop busStop="464396566" duration="30.00"/>
        <stop busStop="301331956" duration="30.00"/>
        <stop busStop="1560223236" duration="30.00"/>
    </vehicle>

</routes>
